ITEM: TIMESTEP
0
ITEM: NUMBER OF ATOMS
23873
ITEM: BOX BOUNDS pp pp pp
-50.000000 50.000000
-50.000000 50.000000
-50.000000 50.000000
ITEM: ATOMS id type x y z a b c qw qx qy qz
1 1 -14.716459 -35.076507 2.665132 0.794527 0.794527 1.589457 0.715006 -0.539323 -0.444857 0.000000
2 1 18.923152 47.182582 37.173518 0.793037 0.793037 1.585741 0.027629 0.237145 -0.971081 0.000000
3 1 37.963420 -5.017821 21.597263 0.794025 0.794025 1.589155 0.311870 0.220747 -0.924126 0.000000
4 1 -38.755360 -33.278530 31.593745 0.792688 0.792688 1.585283 0.636762 -0.247863 -0.730136 0.000000
5 1 28.741746 -48.786420 14.134488 0.792988 0.792988 1.585444 0.283413 0.348513 -0.893429 0.000000
6 1 41.072936 41.283620 16.214409 0.795145 0.795145 1.589916 0.233225 0.164363 -0.958432 0.000000
7 1 32.769588 42.342962 -8.255513 0.793296 0.793296 1.587052 0.896786 -0.135552 -0.421189 0.000000
8 1 -48.154806 29.331377 -27.142925 0.794113 0.794113 1.586012 0.349762 0.852130 -0.389283 0.000000
9 1 45.529090 17.897937 -39.610450 0.792694 0.792694 1.584781 -0.111196 0.881187 -0.459505 0.000000
10 1 -7.764583 10.444979 -13.617762 0.794644 0.794644 1.589332 -0.294181 0.935723 0.194626 0.000000
11 1 -36.244336 36.764629 -19.088108 0.793434 0.793434 1.586773 0.364853 -0.167754 -0.915828 0.000000
12 1 -7.750737 -42.622376 -0.613715 0.794118 0.794118 1.589772 0.529664 0.577316 -0.621419 0.000000
13 1 -34.628328 -8.891285 -44.217295 0.793749 0.793749 1.587773 0.671063 0.694396 -0.259785 0.000000
14 1 26.592409 45.443948 9.092078 0.794895 0.794895 1.589835 0.120228 0.556914 0.821823 0.000000
15 1 44.948678 -25.088084 20.294032 0.793508 0.793508 1.586937 0.617547 -0.771370 -0.153701 0.000000
16 1 24.109346 15.761800 20.457661 0.794612 0.794612 1.587292 0.958058 0.270599 -0.094341 0.000000
17 1 20.061830 -34.404583 -47.345598 0.792593 0.792593 1.585976 0.066207 0.790542 -0.608818 0.000000
18 1 -34.965692 7.767955 -15.346217 0.792372 0.792372 1.584536 0.902353 0.392405 0.178262 0.000000
19 1 20.917678 7.074251 -45.584186 0.793357 0.793357 1.587060 0.233336 0.953904 -0.188736 0.000000
20 1 -0.588512 -29.663957 40.088754 0.793488 0.793488 1.588118 0.869906 -0.020213 -0.492802 0.000000
21 1 -38.204598 -22.446499 -14.932776 0.792836 0.792836 1.587223 0.047809 0.321261 -0.945783 0.000000
22 1 -35.282674 5.369132 -41.351592 0.794465 0.794465 1.589363 0.185844 -0.168252 -0.968067 0.000000
23 1 -25.481895 -49.519496 30.185688 0.792903 0.792903 1.586373 0.190151 0.262548 -0.945998 0.000000
24 1 -32.057806 0.501586 2.573257 0.793085 0.793085 1.586521 0.560261 0.221400 -0.798179 0.000000
25 1 39.086382 -12.055630 -9.102202 0.794628 0.794628 1.590334 0.294151 0.301403 -0.906990 0.000000
26 1 -44.456321 -14.576069 -18.982927 0.793917 0.793917 1.588615 0.732989 0.677208 0.064155 0.000000
27 1 -13.780392 -26.037560 -17.814488 0.793172 0.793172 1.585428 0.221011 0.056032 -0.973660 0.000000
28 1 33.854210 39.241738 19.924957 0.792360 0.792360 1.584432 0.921282 0.351273 0.166875 0.000000
29 1 -5.172020 -46.639844 -11.793904 0.793785 0.793785 1.587292 0.664871 0.269470 -0.696658 0.000000
30 1 39.677570 14.381563 40.474711 0.791923 0.791923 1.584262 0.934970 -0.073462 -0.347036 0.000000
31 1 -37.989595 16.758443 16.990567 0.793483 0.793483 1.587002 0.625778 0.149335 -0.765572 0.000000
32 1 42.351889 -49.278802 49.726930 0.795173 0.795173 1.590331 0.608022 0.424018 0.671206 0.000000
33 1 11.615869 4.339778 25.241880 0.794345 0.794345 1.587507 0.171734 0.769339 -0.615325 0.000000
34 1 36.298306 -20.518372 35.922734 0.794190 0.794190 1.588709 0.821254 0.309801 -0.479130 0.000000
35 1 37.495186 20.391881 22.974333 0.793005 0.793005 1.585811 0.487814 0.585406 -0.647562 0.000000
36 1 -7.281379 -46.717790 13.589616 0.794200 0.794200 1.587829 0.748408 0.452169 -0.485210 0.000000
37 1 28.079074 -22.662729 20.869971 0.794442 0.794442 1.588930 -0.034605 0.873243 0.486056 0.000000
38 1 -38.660039 -6.784195 32.717990 0.793560 0.793560 1.588441 -0.014047 0.659566 -0.751516 0.000000
39 1 -14.497820 -31.164333 22.302849 0.793485 0.793485 1.586286 0.521152 0.832103 0.189751 0.000000
40 1 -37.124303 -0.872417 -3.654300 0.794041 0.794041 1.587512 0.983812 0.045414 -0.173355 0.000000
41 1 34.154073 -2.377635 32.495411 0.794231 0.794231 1.587742 0.885240 -0.423076 0.193279 0.000000
42 1 -46.141866 -35.902567 -34.245316 0.793556 0.793556 1.587155 -0.102572 0.733300 -0.672124 0.000000
43 1 -27.756192 -29.424699 -5.963791 0.793045 0.793045 1.585271 0.551939 0.655136 -0.515907 0.000000
44 1 -30.010274 -7.601684 -46.521571 0.795466 0.795466 1.591491 0.735118 0.437877 -0.517556 0.000000
45 1 -10.255068 -45.404465 6.890852 0.794129 0.794129 1.588740 0.187211 0.882187 -0.432087 0.000000
46 1 31.454672 -22.090069 -40.361705 0.792703 0.792703 1.585238 0.012162 0.909200 -0.416181 0.000000
47 1 -41.203975 -4.356585 -28.934423 0.793797 0.793797 1.586914 -0.274987 0.612158 -0.741380 0.000000
48 1 22.922372 -21.084135 -49.001906 0.793054 0.793054 1.584935 0.275788 -0.149883 -0.949461 0.000000
49 1 -48.418217 25.547560 -5.075829 0.793635 0.793635 1.587555 0.800423 -0.252657 -0.543588 0.000000
50 1 40.859668 -43.572513 -30.950288 0.793540 0.793540 1.586686 0.603643 -0.053619 -0.795450 0.000000
51 1 -34.515624 16.291387 -46.407478 0.793995 0.793995 1.590302 0.350244 0.386156 -0.853354 0.000000
52 1 -22.852078 30.774030 21.861429 0.792393 0.792393 1.585459 0.781345 -0.368767 -0.503498 0.000000
53 1 13.752938 -32.739491 -5.902335 0.795066 0.795066 1.591457 0.731202 -0.304573 0.610393 0.000000
54 1 15.163757 -2.741405 -46.201543 0.794871 0.794871 1.588080 0.237859 0.968008 -0.079892 0.000000
55 1 -18.365568 -37.373380 1.791605 0.793614 0.793614 1.588516 0.444801 -0.129285 -0.886249 0.000000
56 1 39.517354 28.578727 -30.858465 0.793952 0.793952 1.587878 0.737960 -0.253115 -0.625578 0.000000
57 1 40.934472 21.095420 22.991924 0.794209 0.794209 1.587281 0.397845 0.823681 -0.404066 0.000000
58 1 -13.895817 -40.163987 -31.450204 0.794186 0.794186 1.586313 0.005264 0.873802 -0.486254 0.000000
59 1 49.084300 11.835433 -43.318806 0.793309 0.793309 1.586261 0.402511 0.361693 -0.840930 0.000000
60 1 -1.964897 45.060563 -14.173154 0.794234 0.794234 1.587170 0.303074 0.784887 -0.540461 0.000000
61 1 23.425921 -5.010660 21.085749 0.793257 0.793257 1.586567 0.725585 0.061105 -0.685414 0.000000
62 1 0.926653 24.702889 -13.865987 0.792763 0.792763 1.585131 0.350525 -0.741578 -0.572009 0.000000
63 1 -45.435597 17.046639 27.108524 0.794323 0.794323 1.587906 0.138724 0.712103 0.688233 0.000000
64 1 -44.412638 47.977117 19.296034 0.793462 0.793462 1.587759 0.407592 0.181617 -0.894921 0.000000
65 1 -14.233445 16.502436 -44.687664 0.792681 0.792681 1.583921 0.835620 -0.492346 -0.243587 0.000000
66 1 -38.686653 35.338154 48.792922 0.794583 0.794583 1.588995 0.308143 0.951317 0.006655 0.000000
67 1 -8.644230 -21.225114 33.863482 0.794078 0.794078 1.587374 -0.007085 0.357991 -0.933698 0.000000
68 1 -39.334253 -1.737473 -6.419630 0.793361 0.793361 1.586306 0.597509 0.676120 -0.431098 0.000000
69 1 -16.452396 -48.822414 -3.381786 0.794456 0.794456 1.589204 0.170809 0.709672 -0.683513 0.000000
70 1 6.472723 15.432269 11.708657 0.795612 0.795612 1.590718 0.209934 0.382990 -0.899581 0.000000
71 1 -9.778735 -14.220798 39.165335 0.792669 0.792669 1.585084 0.134374 0.983138 -0.124026 0.000000
72 1 -19.873046 48.948862 -26.709391 0.793693 0.793693 1.588140 0.543478 -0.077848 -0.835806 0.000000
73 1 6.811727 3.212258 8.336169 0.793781 0.793781 1.586603 0.444494 0.570091 -0.690957 0.000000
74 1 0.253253 2.211159 3.347783 0.794524 0.794524 1.589896 0.678924 0.607614 0.412150 0.000000
75 1 2.009730 -26.466022 14.237583 0.794915 0.794915 1.589597 0.757853 -0.396881 -0.517827 0.000000
76 1 35.267605 -22.657858 -15.258213 0.792573 0.792573 1.585105 0.898739 0.195699 -0.392390 0.000000
77 1 19.365682 -41.979698 -43.838910 0.794147 0.794147 1.589419 0.330854 -0.313290 -0.890160 0.000000
78 1 -47.604295 -7.279109 -22.001766 0.794817 0.794817 1.589884 0.199411 0.821002 0.534969 0.000000
79 1 -37.151676 -3.168110 -49.914067 0.792962 0.792962 1.586022 0.116440 0.522842 -0.844440 0.000000
80 1 -31.303539 38.856275 -16.225722 0.793197 0.793197 1.586949 0.743450 -0.597478 -0.300502 0.000000
81 1 37.282256 15.743493 17.115449 0.794707 0.794707 1.589172 0.787606 -0.277675 0.550066 0.000000
82 1 -15.173137 -36.650958 -39.873637 0.793701 0.793701 1.587432 0.349758 0.396479 -0.848807 0.000000
83 1 30.471070 18.539047 -1.155676 0.793259 0.793259 1.586126 0.967859 -0.063769 0.243275 0.000000
84 1 -35.730491 -24.451056 -39.491064 0.793192 0.793192 1.586887 0.776957 0.472406 -0.416138 0.000000
85 1 -26.868840 -32.024956 -36.385906 0.794346 0.794346 1.588922 0.680154 0.698116 0.223664 0.000000
86 1 26.225433 4.993230 -39.954801 0.792556 0.792556 1.585991 0.369800 0.556989 -0.743648 0.000000
87 1 40.941918 28.954425 38.989656 0.793133 0.793133 1.586104 0.202022 0.970801 0.129352 0.000000
88 1 0.975161 -1.434467 -15.057981 0.794744 0.794744 1.587675 0.553140 0.178878 -0.813658 0.000000
89 1 -35.290479 -28.752303 -33.983565 0.794416 0.794416 1.588784 0.677580 0.726941 -0.111542 0.000000
90 1 -38.682860 -48.262482 -42.664937 0.793235 0.793235 1.586547 0.892290 0.417483 -0.171832 0.000000
91 1 32.129609 -37.073322 -43.667618 0.792926 0.792926 1.586197 0.373151 0.577785 -0.725895 0.000000
92 1 -48.275030 -10.467348 -29.401266 0.795510 0.795510 1.589931 0.815869 0.473891 -0.331339 0.000000
93 1 -14.995003 -22.726929 13.966218 0.793297 0.793297 1.587009 0.620846 -0.098742 -0.777689 0.000000
94 1 34.195302 32.795192 -48.234436 0.794023 0.794023 1.588323 0.992219 -0.124502 -0.000144 0.000000
95 1 19.933806 37.961726 22.967624 0.793442 0.793442 1.586242 0.831450 0.482240 0.275925 0.000000
96 1 30.426606 -49.860455 -37.296960 0.794108 0.794108 1.588871 0.170888 0.839563 -0.515685 0.000000
97 1 34.994839 19.416721 -44.081389 0.793237 0.793237 1.586121 0.291494 0.164339 -0.942350 0.000000
98 1 -6.897552 35.624368 2.064566 0.794288 0.794288 1.589206 0.336917 0.746204 -0.574166 0.000000
99 1 -32.290842 38.870709 33.134339 0.793187 0.793187 1.586109 0.876273 -0.354623 -0.326172 0.000000
100 1 -0.246419 34.664197 40.325346 0.793980 0.793980 1.588245 0.204012 0.618371 -0.758944 0.000000
101 1 -19.995370 45.175872 35.388946 0.793778 0.793778 1.588528 0.895039 0.128055 -0.427209 0.000000
102 1 -45.914615 36.300501 -22.781363 0.794308 0.794308 1.588655 0.492566 -0.358926 -0.792812 0.000000
103 1 0.304046 -46.607453 1.785941 0.794621 0.794621 1.589746 0.429220 0.862668 0.267535 0.000000
104 1 -6.341495 20.547924 -19.788657 0.793607 0.793607 1.587566 0.636461 0.577111 -0.511723 0.000000
105 1 -15.821838 -47.053448 21.039438 0.795845 0.795845 1.590585 0.715734 0.294047 -0.633452 0.000000
106 1 4.874763 -35.672404 0.379899 0.792996 0.792996 1.586429 0.207850 -0.367099 -0.906662 0.000000
107 1 -26.728541 -13.806430 0.114579 0.793172 0.793172 1.586339 0.504938 0.606629 -0.614035 0.000000
108 1 -36.703286 -28.448775 -18.186726 0.794069 0.794069 1.588726 0.518009 -0.116380 -0.847421 0.000000
109 1 19.366042 -31.912022 2.359510 0.794569 0.794569 1.588035 -0.255615 0.943598 0.210436 0.000000
110 1 -40.862812 23.446536 -21.438340 0.793373 0.793373 1.588241 0.252990 0.934977 0.248625 0.000000
111 1 26.388844 -42.455179 -31.872766 0.792530 0.792530 1.585673 0.925748 0.136794 -0.352532 0.000000
112 1 -40.225805 25.699532 -43.957880 0.793508 0.793508 1.586912 0.983350 0.158089 -0.089619 0.000000
113 1 -42.332206 -34.407293 3.905381 0.795001 0.795001 1.590934 0.014560 0.624097 -0.781211 0.000000
114 1 -31.267404 41.744333 49.338806 0.792729 0.792729 1.585912 0.007882 -0.198361 -0.980097 0.000000
115 1 12.367219 -18.001942 28.433767 0.795020 0.795020 1.590073 0.261486 0.790795 -0.553415 0.000000
116 1 14.338570 49.466440 -47.331958 0.792557 0.792557 1.585313 0.666000 0.447750 -0.596628 0.000000
117 1 5.799840 -41.770501 21.257855 0.793977 0.793977 1.587494 0.730043 -0.039172 -0.682278 0.000000
118 1 18.558713 11.292541 -7.551908 0.792608 0.792608 1.586620 0.934928 0.099592 0.340575 0.000000
119 1 -7.211215 8.564208 10.897682 0.793286 0.793286 1.587223 0.112936 0.690526 -0.714437 0.000000
120 1 42.097597 43.556390 -16.996079 0.792842 0.792842 1.585466 0.811210 0.428627 -0.397766 0.000000
121 1 -18.572686 36.905995 18.854992 0.793199 0.793199 1.585885 0.230801 0.688991 -0.687039 0.000000
122 1 39.915610 20.114640 -18.181664 0.794259 0.794259 1.588306 0.724905 0.095831 -0.682150 0.000000
123 1 41.866544 -35.409895 34.971082 0.794624 0.794624 1.588879 -0.114717 0.102673 -0.988078 0.000000
124 1 -39.074847 10.521173 34.388210 0.793545 0.793545 1.587302 0.515383 0.552822 -0.654804 0.000000
125 1 7.023202 -21.741439 29.087269 0.792799 0.792799 1.585765 0.682057 0.162810 -0.712946 0.000000
126 1 -21.961423 -0.486753 9.210987 0.793925 0.793925 1.588086 0.792496 0.609878 0.000190 0.000000
127 1 -0.330512 -42.585474 -25.345202 0.793497 0.793497 1.586893 0.265458 0.748697 -0.607441 0.000000
128 1 -25.708073 -36.841401 -21.595193 0.793007 0.793007 1.586005 0.901871 -0.044567 -0.429700 0.000000
129 1 9.044923 29.747713 36.520046 0.793349 0.793349 1.586830 0.507893 0.535583 -0.674682 0.000000
130 1 -26.581558 -30.640797 42.503877 0.793745 0.793745 1.588867 0.047679 0.220633 -0.974191 0.000000
131 1 30.587450 -16.056762 -8.384900 0.793233 0.793233 1.585690 -0.146495 0.903846 -0.401998 0.000000
132 1 -7.134706 -22.846227 -12.411159 0.793026 0.793026 1.587222 0.340417 -0.057070 -0.938541 0.000000
133 1 -12.877758 44.119552 23.952738 0.793887 0.793887 1.587134 0.348775 0.054008 -0.935649 0.000000
134 1 29.081636 -14.161922 -40.120179 0.794963 0.794963 1.588905 0.424157 0.778673 -0.462342 0.000000
135 1 -10.297222 -25.511792 16.020458 0.794749 0.794749 1.589574 0.384601 -0.141965 -0.912101 0.000000
136 1 -26.156684 10.664434 -24.760122 0.793714 0.793714 1.587035 0.877119 0.232339 -0.420334 0.000000
137 1 49.569783 -25.411939 46.833180 0.792951 0.792951 1.585163 0.162386 0.332956 -0.928855 0.000000
138 1 -38.570117 -28.617771 -17.338511 0.793156 0.793156 1.586340 0.367545 0.609829 -0.702153 0.000000
139 1 -27.772101 -35.372451 -6.927781 0.793691 0.793691 1.586899 0.434454 0.709964 -0.554257 0.000000
140 1 -45.084941 22.307431 -26.307331 0.793242 0.793242 1.587894 0.730193 0.569308 -0.377765 0.000000
141 1 41.912300 12.559942 20.543347 0.793728 0.793728 1.587787 0.008067 0.842511 0.538620 0.000000
142 1 44.591256 -3.624343 -25.999774 0.796091 0.796091 1.591231 -0.275228 0.960713 0.035785 0.000000
143 1 -45.807806 -14.925443 41.696510 0.792451 0.792451 1.583578 0.658507 0.750975 0.049036 0.000000
144 1 0.059066 3.895528 43.314647 0.793887 0.793887 1.587496 0.866699 0.390295 -0.310650 0.000000
145 1 29.141762 44.643697 9.686735 0.792767 0.792767 1.585119 -0.377627 0.626510 -0.681824 0.000000
146 1 41.618523 3.858098 -19.222178 0.794533 0.794533 1.588483 0.930955 0.186253 -0.314059 0.000000
147 1 29.281173 33.515795 -32.808957 0.794917 0.794917 1.590317 0.620382 0.219189 -0.753049 0.000000
148 1 -21.590295 -22.671569 -19.882498 0.794295 0.794295 1.588866 0.595357 0.367221 -0.714632 0.000000
149 1 -40.964046 -21.831739 25.269782 0.794200 0.794200 1.590118 0.749144 -0.106274 -0.653827 0.000000
150 1 -24.261421 -46.382829 0.518055 0.794843 0.794843 1.590273 0.383924 0.764572 -0.517718 0.000000
151 1 28.064387 46.361834 32.726138 0.793805 0.793805 1.588820 0.360833 -0.205770 -0.909647 0.000000
152 1 -38.955858 -21.725337 -2.965748 0.794545 0.794545 1.588899 -0.008500 0.578217 0.815839 0.000000
153 1 -26.167739 11.041682 35.899716 0.795540 0.795540 1.592095 -0.117079 0.993075 0.009737 0.000000
154 1 26.024156 12.185966 -16.689399 0.793943 0.793943 1.587409 0.074800 -0.347649 -0.934636 0.000000
155 1 41.686818 26.820244 27.865140 0.794559 0.794559 1.589283 0.152426 0.812923 -0.562070 0.000000
156 1 -6.653874 -21.636473 43.018360 0.794487 0.794487 1.589131 0.283261 0.669006 0.687164 0.000000
157 1 -8.935809 -25.587915 3.976530 0.793554 0.793554 1.586938 0.059675 0.533835 -0.843481 0.000000
158 1 -28.117177 17.520662 -27.046989 0.794674 0.794674 1.589774 0.470636 -0.033516 -0.881691 0.000000
159 1 7.884135 -7.268856 20.074612 0.793087 0.793087 1.586476 0.287854 -0.144223 -0.946752 0.000000
160 1 -38.524946 -14.131054 32.233369 0.794008 0.794008 1.588472 0.207559 0.483162 -0.850572 0.000000
161 1 -8.527121 -16.233955 -36.020212 0.793840 0.793840 1.587830 0.457635 0.546060 -0.701704 0.000000
162 1 40.822002 14.888890 19.630667 0.793651 0.793651 1.587749 0.177606 0.905316 -0.385824 0.000000
163 1 49.635673 -21.043435 -45.368107 0.793965 0.793965 1.588915 0.600019 0.581428 -0.549471 0.000000
164 1 20.115242 -6.200555 33.184081 0.794795 0.794795 1.589683 0.833026 -0.285322 -0.473982 0.000000
165 1 8.818526 -25.985783 19.941870 0.794542 0.794542 1.587987 0.004919 0.183180 -0.983067 0.000000
166 1 -13.598359 10.163345 17.759365 0.793310 0.793310 1.585549 0.281951 0.346914 -0.894514 0.000000
167 1 -4.884197 41.847627 29.379865 0.793012 0.793012 1.584963 0.905062 -0.075385 -0.418546 0.000000
168 1 -15.912002 31.901141 5.751672 0.792395 0.792395 1.584767 0.590625 -0.034439 -0.806211 0.000000
169 1 11.321295 38.339608 21.729585 0.793100 0.793100 1.585508 0.715621 0.493686 -0.494126 0.000000
170 1 23.097792 -35.261719 -13.944891 0.794104 0.794104 1.587604 0.683719 0.645853 -0.339710 0.000000
171 1 49.449403 -27.109312 45.590622 0.792961 0.792961 1.586483 -0.360592 0.500586 -0.787012 0.000000
172 1 -47.226286 22.724970 48.997945 0.793796 0.793796 1.586737 -0.165844 0.641093 -0.749330 0.000000
173 1 47.820942 30.413262 1.193248 0.794426 0.794426 1.588657 0.628427 0.576362 -0.522386 0.000000
174 1 37.715208 38.753153 23.820877 0.792409 0.792409 1.584454 0.177250 0.915514 0.361131 0.000000
175 1 4.451790 -24.791906 -21.824914 0.793160 0.793160 1.586015 0.769609 -0.307561 -0.559560 0.000000
176 1 -42.809912 14.514055 43.371605 0.793938 0.793938 1.587977 0.372553 0.245480 -0.894954 0.000000
177 1 15.935841 -31.882345 49.021231 0.793127 0.793127 1.585228 0.731105 -0.151447 -0.665244 0.000000
178 1 11.783898 -31.015821 -9.730405 0.793940 0.793940 1.587565 0.007884 0.823555 -0.567181 0.000000
179 1 39.276187 1.218011 -21.812259 0.793226 0.793226 1.585744 0.826042 -0.008073 0.563551 0.000000
180 1 8.095084 -32.610591 -14.918189 0.793758 0.793758 1.587275 0.877346 0.212501 -0.430241 0.000000
181 1 28.243041 -18.299651 -24.887331 0.794907 0.794907 1.590808 0.166702 0.821196 0.545754 0.000000
182 1 -19.075921 -13.332158 46.885348 0.794620 0.794620 1.590259 0.469935 0.812606 0.344721 0.000000
183 1 -4.027185 20.609180 -41.262542 0.792628 0.792628 1.584803 0.904852 -0.420272 0.067933 0.000000
184 1 35.397183 26.391005 11.826585 0.793192 0.793192 1.586880 0.686652 -0.029826 -0.726374 0.000000
185 1 -37.873235 4.530400 -11.995777 0.794746 0.794746 1.589125 0.696117 0.207405 -0.687317 0.000000
186 1 -40.131166 24.923020 -5.267106 0.794468 0.794468 1.589164 0.828799 0.053794 -0.556955 0.000000
187 1 -31.154290 -38.861002 -16.712865 0.791831 0.791831 1.583494 0.733774 0.468496 -0.492024 0.000000
188 1 1.049806 -33.351854 -2.327060 0.793380 0.793380 1.588042 0.560674 -0.065793 -0.825419 0.000000
189 1 38.263049 -37.105827 -2.600268 0.792837 0.792837 1.585614 0.600575 0.220470 -0.768571 0.000000
190 1 -2.595061 -20.652116 25.073424 0.792912 0.792912 1.586686 0.674154 0.107879 -0.730670 0.000000
191 1 -19.829527 -22.845361 4.055448 0.795329 0.795329 1.591202 -0.227674 0.712548 -0.663656 0.000000
192 1 -18.014437 41.549011 4.001633 0.793489 0.793489 1.587033 0.584564 -0.630769 -0.510310 0.000000
193 1 3.858511 3.212570 3.413522 0.794823 0.794823 1.589823 0.656080 0.754176 0.027884 0.000000
194 1 39.588315 7.997120 25.991428 0.794263 0.794263 1.586768 0.453654 -0.289208 -0.842945 0.000000
195 1 7.465921 6.359274 25.551301 0.794439 0.794439 1.589586 0.521070 0.776041 -0.355313 0.000000
196 1 -25.126510 21.297702 12.603122 0.793732 0.793732 1.587064 0.956217 -0.281462 -0.080174 0.000000
197 1 -1.839352 27.848231 47.324816 0.794287 0.794287 1.587341 0.236446 0.358940 -0.902915 0.000000
198 1 47.514430 31.249706 33.074732 0.794741 0.794741 1.589368 0.841410 -0.227863 -0.490007 0.000000
199 1 19.787302 22.450777 -9.281290 0.793748 0.793748 1.587628 0.580189 0.133488 0.803469 0.000000
200 1 -1.036642 -10.736398 6.117508 0.794768 0.794768 1.589398 0.230500 0.868296 -0.439240 0.000000
201 1 12.854291 33.120081 -27.996289 0.790991 0.790991 1.582952 0.439578 0.890515 -0.117276 0.000000
202 1 27.843017 45.053635 -16.886787 0.794154 0.794154 1.588297 0.884269 0.235211 -0.403416 0.000000
203 1 34.524293 -45.016029 24.142115 0.794930 0.794930 1.589918 0.712516 -0.339171 -0.614234 0.000000
204 1 6.340249 48.341296 -45.477156 0.792642 0.792642 1.586660 0.798911 -0.079759 -0.596137 0.000000
205 1 -30.615630 38.318915 44.234908 0.793086 0.793086 1.585939 -0.365419 0.825834 -0.429497 0.000000
206 1 45.859117 -41.369388 5.301761 0.791673 0.791673 1.582868 0.393447 0.653529 -0.646606 0.000000
207 1 -48.791011 29.101093 8.179808 0.793739 0.793739 1.587481 -0.028435 0.995131 0.094374 0.000000
208 1 30.496979 46.539245 -16.277388 0.794055 0.794055 1.589317 0.298261 0.951869 0.070610 0.000000
209 1 10.315158 -31.061057 -17.879397 0.793414 0.793414 1.585724 0.205040 0.976103 -0.071987 0.000000
210 1 -43.218330 9.396627 25.669951 0.794224 0.794224 1.587398 0.271260 0.726817 -0.630995 0.000000
211 1 8.447013 18.697461 7.951124 0.793839 0.793839 1.588192 0.109025 0.178981 -0.977793 0.000000
212 1 -0.394284 -23.056503 -5.278069 0.793877 0.793877 1.587786 -0.091815 0.714217 -0.693876 0.000000
213 1 -49.886256 21.139954 34.884442 0.795141 0.795141 1.590131 0.714761 0.654229 0.247186 0.000000
214 1 -15.806350 32.526321 -22.861201 0.793425 0.793425 1.585141 0.298025 0.894765 -0.332530 0.000000
215 1 -15.947108 -22.850420 -29.092499 0.792827 0.792827 1.585764 0.568204 0.801607 0.185934 0.000000
216 1 6.506156 32.377078 1.619723 0.792568 0.792568 1.586477 0.074959 0.540259 -0.838154 0.000000
217 1 -42.886178 40.888206 31.616272 0.793107 0.793107 1.585920 0.905506 0.134987 -0.402291 0.000000
218 1 -34.722090 -21.783298 17.531469 0.793829 0.793829 1.587601 0.454974 0.400850 -0.795184 0.000000
219 1 47.814720 -8.751641 -31.424671 0.795470 0.795470 1.590188 0.708758 -0.127893 -0.693761 0.000000
220 1 -18.354177 9.292709 -44.662775 0.793254 0.793254 1.586489 0.555198 0.375574 0.742091 0.000000
221 1 8.832834 -9.983437 -49.970485 0.793561 0.793561 1.587393 0.780536 0.225600 -0.582982 0.000000
222 1 48.183352 -34.161094 -14.625264 0.793594 0.793594 1.587937 0.137923 0.744673 -0.653023 0.000000
223 1 34.433252 2.162205 -7.025409 0.794654 0.794654 1.587984 0.724399 0.189751 -0.662753 0.000000
224 1 35.822518 -11.279886 -49.289054 0.792650 0.792650 1.586971 0.715972 -0.083450 -0.693123 0.000000
225 1 -25.858485 -40.281648 5.927823 0.793332 0.793332 1.587185 0.953371 -0.107250 0.282102 0.000000
226 1 -22.966551 30.972610 -0.489634 0.792756 0.792756 1.587000 -0.173931 0.983125 -0.056684 0.000000
227 1 14.018164 -32.046674 8.015881 0.793854 0.793854 1.589632 0.868188 0.417983 -0.267469 0.000000
228 1 -42.761154 -31.136724 37.973876 0.794934 0.794934 1.589853 0.530476 0.553608 -0.641960 0.000000
229 1 -1.883772 -11.630342 46.443445 0.792502 0.792502 1.583879 0.562018 0.603783 -0.565316 0.000000
230 1 -27.492979 -9.552000 -33.082655 0.794548 0.794548 1.589057 0.943744 0.255835 -0.209513 0.000000
231 1 -15.479840 -7.167385 -16.955372 0.792470 0.792470 1.585259 0.793362 -0.607662 -0.036375 0.000000
232 1 20.616598 -30.436081 38.698239 0.793264 0.793264 1.587049 0.223260 0.198913 -0.954248 0.000000
233 1 -45.502173 -18.395457 -41.814139 0.793175 0.793175 1.586903 0.093493 0.036240 -0.994960 0.000000
234 1 20.131807 -46.855964 -42.279462 0.795254 0.795254 1.588991 0.536566 -0.642859 -0.546653 0.000000
235 1 -2.701872 6.264141 -21.227042 0.795298 0.795298 1.589697 0.846779 0.320094 0.424859 0.000000
236 1 7.310719 21.940907 -16.825949 0.793995 0.793995 1.586939 0.226205 0.643784 -0.731009 0.000000
237 1 43.120731 15.331431 31.031811 0.794786 0.794786 1.588329 0.341521 0.688554 -0.639732 0.000000
238 1 -38.935530 -34.211796 -43.338241 0.794380 0.794380 1.589888 0.709615 0.556927 0.431601 0.000000
239 1 35.741694 33.884941 -27.798877 0.792912 0.792912 1.585291 0.606627 0.548750 -0.575219 0.000000
240 1 -19.980501 -37.051196 45.248620 0.794134 0.794134 1.587659 0.277597 0.519548 0.808090 0.000000
241 1 19.589374 -46.312565 -46.108776 0.792906 0.792906 1.588771 -0.076290 0.052426 -0.995706 0.000000
242 1 41.620077 24.888748 -9.115990 0.794104 0.794104 1.586263 0.087524 0.493527 -0.865315 0.000000
243 1 4.916440 38.419563 9.379653 0.792277 0.792277 1.584818 0.496623 -0.679442 -0.540114 0.000000
244 1 6.951760 26.552903 -6.891483 0.793881 0.793881 1.587602 0.724231 -0.092696 0.683298 0.000000
245 1 13.681549 11.671750 -2.190287 0.795034 0.795034 1.590419 0.834818 -0.031198 -0.549642 0.000000
246 1 -29.579461 23.068165 -40.157854 0.793220 0.793220 1.586602 0.423161 0.377677 -0.823586 0.000000
247 1 37.800467 44.933088 38.186935 0.794076 0.794076 1.587368 -0.023625 0.623549 -0.781427 0.000000
248 1 35.341743 -32.433853 -21.377861 0.792893 0.792893 1.585160 0.408594 0.235372 -0.881845 0.000000
249 1 -6.327209 32.377259 -5.997484 0.793395 0.793395 1.586679 0.896942 0.190275 -0.399111 0.000000
250 1 -49.983168 -36.345052 -41.006385 0.793687 0.793687 1.586039 0.647222 0.027558 -0.761803 0.000000
251 1 37.216373 -30.845306 -48.553313 0.793348 0.793348 1.587552 0.927034 0.111259 -0.358091 0.000000
252 1 -3.470528 -36.693428 -39.020889 0.793642 0.793642 1.586630 0.269023 0.962193 0.042566 0.000000
253 1 14.641344 -44.686087 -22.999054 0.792377 0.792377 1.584092 0.780617 0.355824 -0.513836 0.000000
254 1 -23.986854 15.131813 38.923089 0.794315 0.794315 1.588267 -0.286848 0.942343 -0.172360 0.000000
255 1 39.422307 44.971117 -35.589060 0.794040 0.794040 1.587296 0.087411 0.948500 -0.304479 0.000000
256 1 -34.928709 12.473421 -1.203516 0.793471 0.793471 1.588211 0.552124 0.216048 -0.805284 0.000000
257 1 -8.760730 42.979902 -37.668851 0.793684 0.793684 1.588158 0.976035 0.003187 0.217590 0.000000
258 1 -26.049597 -48.860336 -6.858662 0.793161 0.793161 1.584671 0.748753 0.658922 -0.072047 0.000000
259 1 17.796410 -22.422057 -9.997251 0.794347 0.794347 1.587692 0.920046 -0.350997 -0.174117 0.000000
260 1 17.575130 12.607065 38.967258 0.793923 0.793923 1.587894 -0.286958 0.802903 -0.522496 0.000000
261 1 8.969432 -36.399054 -11.073140 0.794260 0.794260 1.589251 0.984308 0.111163 -0.137040 0.000000
262 1 33.644598 -30.452008 -39.452310 0.793672 0.793672 1.587793 0.653061 -0.040937 -0.756198 0.000000
263 1 -22.844452 18.827792 30.348277 0.791911 0.791911 1.584710 0.711594 0.702342 0.018703 0.000000
264 1 45.709899 18.254810 0.156772 0.792340 0.792340 1.586193 0.356037 -0.722009 -0.593246 0.000000
265 1 -16.709365 1.542884 14.608757 0.793900 0.793900 1.586817 0.850449 0.091138 -0.518103 0.000000
266 1 36.258705 13.772038 17.787761 0.792715 0.792715 1.584173 -0.280636 0.273979 -0.919880 0.000000
267 1 -19.750476 -36.009936 -8.578086 0.793347 0.793347 1.587174 0.303793 0.843806 -0.442382 0.000000
268 1 -36.043759 45.175340 -12.912335 0.793647 0.793647 1.588017 0.887032 0.401233 -0.228443 0.000000
269 1 31.281517 -34.717535 5.817958 0.793107 0.793107 1.585834 0.933896 0.250312 -0.255308 0.000000
270 1 29.321511 -20.314028 6.769668 0.794945 0.794945 1.590134 0.782797 0.601730 -0.158588 0.000000
271 1 47.177005 -0.344006 49.866913 0.793482 0.793482 1.585382 0.370512 0.087513 -0.924696 0.000000
272 1 5.147436 37.689783 -26.601088 0.795089 0.795089 1.588634 0.276644 0.853769 0.441074 0.000000
273 1 -9.209535 34.592227 13.520051 0.792657 0.792657 1.585339 0.933700 -0.182977 -0.307772 0.000000
274 1 -27.051468 -32.348948 41.964689 0.794296 0.794296 1.587516 0.120641 0.223441 -0.967223 0.000000
275 1 38.545968 -26.824187 -13.240314 0.794084 0.794084 1.586882 0.604725 -0.327114 -0.726157 0.000000
276 1 40.131198 36.361716 -19.392109 0.793736 0.793736 1.586868 0.822546 0.488642 -0.290942 0.000000
277 1 41.057658 13.943658 17.157758 0.793217 0.793217 1.587584 0.754679 -0.551699 0.355090 0.000000
278 1 -19.799761 6.754944 -34.899239 0.794409 0.794409 1.587666 0.543204 -0.194276 -0.816815 0.000000
279 1 -10.310184 8.509597 33.787798 0.793400 0.793400 1.586406 0.983977 -0.178143 0.007397 0.000000
280 1 -2.934192 20.248871 14.249181 0.792528 0.792528 1.585112 0.725744 0.678676 -0.112672 0.000000
281 1 34.172790 47.911579 -48.668451 0.793555 0.793555 1.586265 0.718802 -0.678593 0.151114 0.000000
282 1 -10.569874 -16.920929 -39.236677 0.793758 0.793758 1.586752 0.242278 0.772421 -0.587084 0.000000
283 1 41.180996 -46.439169 -44.630195 0.793811 0.793811 1.588634 0.195074 0.514372 -0.835085 0.000000
284 1 -27.833177 16.178556 12.599036 0.794610 0.794610 1.589728 -0.293441 0.470485 -0.832188 0.000000
285 1 -10.224071 8.483988 -14.579519 0.794163 0.794163 1.590157 0.817948 0.361901 -0.447201 0.000000
286 1 -41.193805 -29.886087 -3.998575 0.794530 0.794530 1.588472 0.786131 0.328585 -0.523478 0.000000
287 1 -4.838861 23.547810 -27.036759 0.793217 0.793217 1.586613 0.318714 0.745839 -0.584932 0.000000
288 1 -25.742206 28.196800 46.148913 0.794883 0.794883 1.590262 -0.316067 0.856747 -0.407538 0.000000
289 1 -35.972122 29.775587 -35.294063 0.794206 0.794206 1.587574 0.604898 0.710950 -0.358675 0.000000
290 1 6.634025 -48.539891 9.956954 0.793751 0.793751 1.587234 0.122586 0.657014 -0.743845 0.000000
291 1 42.060699 -28.275951 17.777588 0.793496 0.793496 1.586735 -0.269043 0.911785 -0.310265 0.000000
292 1 -31.805474 25.410596 -12.493372 0.793311 0.793311 1.587370 0.582015 0.487603 -0.650770 0.000000
293 1 -48.903108 -29.966526 -33.445955 0.794526 0.794526 1.589630 0.947520 0.128568 -0.292705 0.000000